+ cat
+ set -x
+ cp ./outputs/cod2222222.in ./tmp-cod2222222-93582
+ cd ./tmp-cod2222222-93582
+ pw.x
++ basename ./outputs/cod2222222.out
+ tee cod2222222.out
++ basename ./outputs/cod2222222.in

     Program PWSCF v.6.0 (svn rev. 13079) starts on  6Jan2017 at 19: 1: 1 

     This program is part of the open-source Quantum ESPRESSO suite
     for quantum simulation of materials; please cite
         "P. Giannozzi et al., J. Phys.:Condens. Matter 21 395502 (2009);
          URL http://www.quantum-espresso.org", 
     in publications or presentations arising from this work. More details at
     http://www.quantum-espresso.org/quote

     Parallel version (MPI), running on     1 processors
     Waiting for input...
     Reading input from standard input

     Current dimensions of program PWSCF are:
     Max number of different atomic species (ntypx) = 10
     Max number of k-points (npk) =  40000
     Max angular momentum in pseudopotentials (lmaxx) =  3
               file B.pbe-n-kjpaw_psl.0.1.UPF: wavefunction(s)  2P renormalized
               file O.pbe-n-kjpaw_psl.0.1.UPF: wavefunction(s)  2P renormalized

     gamma-point specific algorithms are used

     Subspace diagonalization in iterative solution of the eigenvalue problem:
     a serial algorithm will be used


     G-vector sticks info
     --------------------
     sticks:   dense  smooth     PW     G-vecs:    dense   smooth      PW
     Sum        5143    3425    859               382129   207947   26015



     bravais-lattice index     =            8
     lattice parameter (alat)  =      16.1343  a.u.
     unit-cell volume          =   13096.4292 (a.u.)^3
     number of atoms/cell      =          200
     number of atomic types    =            6
     number of electrons       =       648.00
     number of Kohn-Sham states=          324
     kinetic-energy cutoff     =      24.0000  Ry
     charge density cutoff     =     144.0000  Ry
     convergence threshold     =      1.0E-07
     mixing beta               =       0.7000
     number of iterations used =            8  plain     mixing
     Exchange-correlation      =  SLA  PW   PBX  PBC ( 1  4  3  4 0 0)
     nstep                     =            1


     celldm(1)=  16.134293  celldm(2)=   1.721266  celldm(3)=   1.811570
     celldm(4)=   0.000000  celldm(5)=   0.000000  celldm(6)=   0.000000

     crystal axes: (cart. coord. in units of alat)
               a(1) = (   1.000000   0.000000   0.000000 )  
               a(2) = (   0.000000   1.721266   0.000000 )  
               a(3) = (   0.000000   0.000000   1.811570 )  

     reciprocal axes: (cart. coord. in units 2 pi/alat)
               b(1) = (  1.000000  0.000000  0.000000 )  
               b(2) = (  0.000000  0.580968  0.000000 )  
               b(3) = (  0.000000  0.000000  0.552007 )  


     PseudoPot. # 1 for  B read from file:
     /home/andrius/SSSP_acc_PBE/B.pbe-n-kjpaw_psl.0.1.UPF
     MD5 check sum: b4345a612e0782cca08559f453f3313f
     Pseudo is Projector augmented-wave + core cor, Zval =  3.0
     Generated using "atomic" code by A. Dal Corso  v.5.0.99 svn rev. 10869
     Shape of augmentation charge: BESSEL
     Using radial grid of 1059 points,  4 beta functions with: 
                l(1) =   0
                l(2) =   0
                l(3) =   1
                l(4) =   1
     Q(r) pseudized with 0 coefficients 


     PseudoPot. # 2 for C  read from file:
     /home/andrius/SSSP_acc_PBE/C_pbe_v1.2.uspp.F.UPF
     MD5 check sum: d1aef80898a10debaa0f26306b886e00
     Pseudo is Ultrasoft + core correction, Zval =  4.0
     Generated by new atomic code, or converted to UPF format
     Using radial grid of  721 points,  4 beta functions with: 
                l(1) =   0
                l(2) =   0
                l(3) =   1
                l(4) =   1
     Q(r) pseudized with  8 coefficients,  rinner =    1.100   1.100   1.100


     PseudoPot. # 3 for F  read from file:
     /home/andrius/SSSP_acc_PBE/f_pbe_v1.4.uspp.F.UPF
     MD5 check sum: 4c38b6a325caf53ec0e86aed9459de46
     Pseudo is Ultrasoft, Zval =  7.0
     Generated by new atomic code, or converted to UPF format
     Using radial grid of  799 points,  4 beta functions with: 
                l(1) =   0
                l(2) =   0
                l(3) =   1
                l(4) =   1
     Q(r) pseudized with  8 coefficients,  rinner =    0.950   0.950   0.950


     PseudoPot. # 4 for  H read from file:
     /home/andrius/SSSP_acc_PBE/H.pbe-rrkjus_psl.0.1.UPF
     MD5 check sum: 36633979392af7100e6f6632747262d3
     Pseudo is Ultrasoft, Zval =  1.0
     Generated using "atomic" code by A. Dal Corso  v.5.0.99 svn rev. 10869
     Using radial grid of  929 points,  2 beta functions with: 
                l(1) =   0
                l(2) =   0
     Q(r) pseudized with 0 coefficients 


     PseudoPot. # 5 for  N read from file:
     /home/andrius/SSSP_acc_PBE/N.pbe.theos.UPF
     MD5 check sum: 1fde47ee573fe9ed3106b9b4217eb757
     Pseudo is Ultrasoft + core correction, Zval =  5.0
     Generated using "atomic" code by A. Dal Corso  v.5.1
     Using radial grid of 1085 points,  4 beta functions with: 
                l(1) =   0
                l(2) =   0
                l(3) =   1
                l(4) =   1
     Q(r) pseudized with 0 coefficients 


     PseudoPot. # 6 for  O read from file:
     /home/andrius/SSSP_acc_PBE/O.pbe-n-kjpaw_psl.0.1.UPF
     MD5 check sum: 3f94a2996a3169367d6eb21d9b593f20
     Pseudo is Projector augmented-wave + core cor, Zval =  6.0
     Generated using "atomic" code by A. Dal Corso  v.5.0.99 svn rev. 10869
     Shape of augmentation charge: BESSEL
     Using radial grid of 1095 points,  4 beta functions with: 
                l(1) =   0
                l(2) =   0
                l(3) =   1
                l(4) =   1
     Q(r) pseudized with 0 coefficients 


     atomic species   valence    mass     pseudopotential
        B              3.00     1.00000      B( 1.00)
        C              4.00     1.00000     C ( 1.00)
        F              7.00     1.00000     F ( 1.00)
        H              1.00     1.00000      H( 1.00)
        N              5.00     1.00000      N( 1.00)
        O              6.00     1.00000      O( 1.00)

      8 Sym. Ops., with inversion, found ( 6 have fractional translation)



   Cartesian axes

     site n.     atom                  positions (alat units)
         1           F   tau(   1) = (   0.1130500   0.3182966   0.0132426  )
         2           F   tau(   2) = (   0.3869500   1.4029698   0.9190274  )
         3           F   tau(   3) = (   0.8869500   1.1789298   0.8925422  )
         4           F   tau(   4) = (   0.6130500   0.5423366   1.7983270  )
         5           F   tau(   5) = (   0.8869500   1.4029698   1.7983270  )
         6           F   tau(   6) = (   0.6130500   0.3182966   0.8925422  )
         7           F   tau(   7) = (   0.1130500   0.5423366   0.9190274  )
         8           F   tau(   8) = (   0.3869500   1.1789298   0.0132426  )
         9           F   tau(   9) = (   0.9978100   0.2563310   1.5941631  )
        10           F   tau(  10) = (   0.5021900   1.4649354   0.6883783  )
        11           F   tau(  11) = (   0.0021900   1.1169642   1.1231913  )
        12           F   tau(  12) = (   0.4978100   0.6043022   0.2174065  )
        13           F   tau(  13) = (   0.0021900   1.4649354   0.2174065  )
        14           F   tau(  14) = (   0.4978100   0.2563310   1.1231913  )
        15           F   tau(  15) = (   0.9978100   0.6043022   0.6883783  )
        16           F   tau(  16) = (   0.5021900   1.1169642   1.5941631  )
        17           N   tau(  17) = (   0.3649000   0.2615464   1.5689642  )
        18           N   tau(  18) = (   0.1351000   1.4597199   0.6631794  )
        19           N   tau(  19) = (   0.6351000   1.1221796   1.1483902  )
        20           N   tau(  20) = (   0.8649000   0.5990868   0.2426054  )
        21           N   tau(  21) = (   0.6351000   1.4597199   0.2426054  )
        22           N   tau(  22) = (   0.8649000   0.2615464   1.1483902  )
        23           N   tau(  23) = (   0.3649000   0.5990868   0.6631794  )
        24           N   tau(  24) = (   0.1351000   1.1221796   1.5689642  )
        25           N   tau(  25) = (   0.2068400   0.0805036   1.6908466  )
        26           N   tau(  26) = (   0.2931600   1.6407627   0.7850618  )
        27           N   tau(  27) = (   0.7931600   0.9411368   1.0265078  )
        28           N   tau(  28) = (   0.7068400   0.7801295   0.1207230  )
        29           N   tau(  29) = (   0.7931600   1.6407627   0.1207230  )
        30           N   tau(  30) = (   0.7068400   0.0805036   1.0265078  )
        31           N   tau(  31) = (   0.2068400   0.7801295   0.7850618  )
        32           N   tau(  32) = (   0.2931600   0.9411368   1.6908466  )
        33           N   tau(  33) = (   0.0353900   1.6468904   0.0003985  )
        34           N   tau(  34) = (   0.4646100   0.0743759   0.9061833  )
        35           N   tau(  35) = (   0.9646100   0.7862573   0.9053862  )
        36           N   tau(  36) = (   0.5353900   0.9350091   1.8111710  )
        37           N   tau(  37) = (   0.9646100   0.0743759   1.8111710  )
        38           N   tau(  38) = (   0.5353900   1.6468904   0.9053862  )
        39           N   tau(  39) = (   0.0353900   0.9350091   0.9061833  )
        40           N   tau(  40) = (   0.4646100   0.7862573   0.0003985  )
        41           B   tau(  41) = (   0.0693000   0.1990817   1.7254657  )
        42           B   tau(  42) = (   0.4307000   1.5221847   0.8196809  )
        43           B   tau(  43) = (   0.9307000   1.0597148   0.9918887  )
        44           B   tau(  44) = (   0.5693000   0.6615515   0.0861039  )
        45           B   tau(  45) = (   0.9307000   1.5221847   0.0861039  )
        46           B   tau(  46) = (   0.5693000   0.1990817   0.9918887  )
        47           B   tau(  47) = (   0.0693000   0.6615515   0.8196809  )
        48           B   tau(  48) = (   0.4307000   1.0597148   1.7254657  )
        49           C   tau(  49) = (   0.5141000   0.4599396   1.4350349  )
        50           C   tau(  50) = (   0.9859000   1.2613268   0.5292501  )
        51           C   tau(  51) = (   0.4859000   1.3205728   1.2823195  )
        52           C   tau(  52) = (   0.0141000   0.4006936   0.3765347  )
        53           C   tau(  53) = (   0.4859000   1.2613268   0.3765347  )
        54           C   tau(  54) = (   0.0141000   0.4599396   1.2823195  )
        55           C   tau(  55) = (   0.5141000   0.4006936   0.5292501  )
        56           C   tau(  56) = (   0.9859000   1.3205728   1.4350349  )
        57           H   tau(  57) = (   0.4310000   0.4792006   1.3617569  )
        58           H   tau(  58) = (   0.0690000   1.2420658   0.4559721  )
        59           H   tau(  59) = (   0.5690000   1.3398337   1.3555975  )
        60           H   tau(  60) = (   0.9310000   0.3814326   0.4498127  )
        61           H   tau(  61) = (   0.5690000   1.2420658   0.4498127  )
        62           H   tau(  62) = (   0.9310000   0.4792006   1.3555975  )
        63           H   tau(  63) = (   0.4310000   0.3814326   0.4559721  )
        64           H   tau(  64) = (   0.0690000   1.3398337   1.3617569  )
        65           H   tau(  65) = (   0.6132000   0.4717991   1.3831334  )
        66           H   tau(  66) = (   0.8868000   1.2494672   0.4773486  )
        67           H   tau(  67) = (   0.3868000   1.3324323   1.3342210  )
        68           H   tau(  68) = (   0.1132000   0.3888341   0.4284362  )
        69           H   tau(  69) = (   0.3868000   1.2494672   0.4284362  )
        70           H   tau(  70) = (   0.1132000   0.4717991   1.3342210  )
        71           H   tau(  71) = (   0.6132000   0.3888341   0.4773486  )
        72           H   tau(  72) = (   0.8868000   1.3324323   1.3831334  )
        73           H   tau(  73) = (   0.5071000   0.5334204   1.5199069  )
        74           H   tau(  74) = (   0.9929000   1.1878459   0.6141221  )
        75           H   tau(  75) = (   0.4929000   1.3940536   1.1974475  )
        76           H   tau(  76) = (   0.0071000   0.3272127   0.2916627  )
        77           H   tau(  77) = (   0.4929000   1.1878459   0.2916627  )
        78           H   tau(  78) = (   0.0071000   0.5334204   1.1974475  )
        79           H   tau(  79) = (   0.5071000   0.3272127   0.6141221  )
        80           H   tau(  80) = (   0.9929000   1.3940536   1.5199069  )
        81           C   tau(  81) = (   0.5000400   0.2962988   1.4979688  )
        82           C   tau(  82) = (   0.9999600   1.4249676   0.5921840  )
        83           C   tau(  83) = (   0.4999600   1.1569320   1.2193856  )
        84           C   tau(  84) = (   0.0000400   0.5643344   0.3136008  )
        85           C   tau(  85) = (   0.4999600   1.4249676   0.3136008  )
        86           C   tau(  86) = (   0.0000400   0.2962988   1.2193856  )
        87           C   tau(  87) = (   0.5000400   0.5643344   0.5921840  )
        88           C   tau(  88) = (   0.9999600   1.1569320   1.4979688  )
        89           C   tau(  89) = (   0.6203000   0.1876525   1.4784038  )
        90           C   tau(  90) = (   0.8797000   1.5336139   0.5726190  )
        91           C   tau(  91) = (   0.3797000   1.0482856   1.2389506  )
        92           C   tau(  92) = (   0.1203000   0.6729807   0.3331658  )
        93           C   tau(  93) = (   0.3797000   1.5336139   0.3331658  )
        94           C   tau(  94) = (   0.1203000   0.1876525   1.2389506  )
        95           C   tau(  95) = (   0.6203000   0.6729807   0.5726190  )
        96           C   tau(  96) = (   0.8797000   1.0482856   1.4784038  )
        97           H   tau(  97) = (   0.7136000   0.2189451   1.4316834  )
        98           H   tau(  98) = (   0.7864000   1.5023213   0.5258987  )
        99           H   tau(  99) = (   0.2864000   1.0795783   1.2856709  )
       100           H   tau( 100) = (   0.2136000   0.6416881   0.3798861  )
       101           H   tau( 101) = (   0.2864000   1.5023213   0.3798861  )
       102           H   tau( 102) = (   0.2136000   0.2189451   1.2856709  )
       103           H   tau( 103) = (   0.7136000   0.6416881   0.5258987  )
       104           H   tau( 104) = (   0.7864000   1.0795783   1.4316834  )
       105           C   tau( 105) = (   0.6033900   0.0347868   1.5270264  )
       106           C   tau( 106) = (   0.8966100   1.6864796   0.6212416  )
       107           C   tau( 107) = (   0.3966100   0.8954200   1.1903280  )
       108           C   tau( 108) = (   0.1033900   0.8258464   0.2845432  )
       109           C   tau( 109) = (   0.3966100   1.6864796   0.2845432  )
       110           C   tau( 110) = (   0.1033900   0.0347868   1.1903280  )
       111           C   tau( 111) = (   0.6033900   0.8258464   0.6212416  )
       112           C   tau( 112) = (   0.8966100   0.8954200   1.5270264  )
       113           C   tau( 113) = (   0.7318000   1.6396267   1.4992731  )
       114           C   tau( 114) = (   0.7682000   0.0816397   0.5934883  )
       115           C   tau( 115) = (   0.2682000   0.7789935   1.2180813  )
       116           C   tau( 116) = (   0.2318000   0.9422728   0.3122965  )
       117           C   tau( 117) = (   0.2682000   0.0816397   0.3122965  )
       118           C   tau( 118) = (   0.2318000   1.6396267   1.2180813  )
       119           C   tau( 119) = (   0.7318000   0.9422728   0.5934883  )
       120           C   tau( 120) = (   0.7682000   0.7789935   1.4992731  )
       121           H   tau( 121) = (   0.7073000   1.5775406   1.4086765  )
       122           H   tau( 122) = (   0.7927000   0.1437257   0.5028917  )
       123           H   tau( 123) = (   0.2927000   0.7169074   1.3086779  )
       124           H   tau( 124) = (   0.2073000   1.0043589   0.4028931  )
       125           H   tau( 125) = (   0.2927000   0.1437257   0.4028931  )
       126           H   tau( 126) = (   0.2073000   1.5775406   1.3086779  )
       127           H   tau( 127) = (   0.7073000   1.0043589   0.5028917  )
       128           H   tau( 128) = (   0.7927000   0.7169074   1.4086765  )
       129           H   tau( 129) = (   0.7418000   1.5727211   1.5891088  )
       130           H   tau( 130) = (   0.7582000   0.1485453   0.6833240  )
       131           H   tau( 131) = (   0.2582000   0.7120879   1.1282455  )
       132           H   tau( 132) = (   0.2418000   1.0091785   0.2224607  )
       133           H   tau( 133) = (   0.2582000   0.1485453   0.2224607  )
       134           H   tau( 134) = (   0.2418000   1.5727211   1.1282455  )
       135           H   tau( 135) = (   0.7418000   1.0091785   0.6833240  )
       136           H   tau( 136) = (   0.7582000   0.7120879   1.5891088  )
       137           H   tau( 137) = (   0.8287000   1.6940703   1.4822262  )
       138           H   tau( 138) = (   0.6713000   0.0271960   0.5764414  )
       139           H   tau( 139) = (   0.1713000   0.8334372   1.2351281  )
       140           H   tau( 140) = (   0.3287000   0.8878292   0.3293434  )
       141           H   tau( 141) = (   0.1713000   0.0271960   0.3293434  )
       142           H   tau( 142) = (   0.3287000   1.6940703   1.2351281  )
       143           H   tau( 143) = (   0.8287000   0.8878292   0.5764414  )
       144           H   tau( 144) = (   0.6713000   0.8334372   1.4822262  )
       145           C   tau( 145) = (   0.4606300   1.7142092   1.6003225  )
       146           C   tau( 146) = (   0.0393700   0.0070572   0.6945377  )
       147           C   tau( 147) = (   0.5393700   0.8535760   1.1170319  )
       148           C   tau( 148) = (   0.9606300   0.8676904   0.2112471  )
       149           C   tau( 149) = (   0.5393700   0.0070572   0.2112471  )
       150           C   tau( 150) = (   0.9606300   1.7142092   1.1170319  )
       151           C   tau( 151) = (   0.4606300   0.8676904   0.6945377  )
       152           C   tau( 152) = (   0.0393700   0.8535760   1.6003225  )
       153           C   tau( 153) = (   0.4213000   1.5601214   1.6556478  )
       154           C   tau( 154) = (   0.0787000   0.1611450   0.7498630  )
       155           C   tau( 155) = (   0.5787000   0.6994882   1.0617066  )
       156           C   tau( 156) = (   0.9213000   1.0217781   0.1559218  )
       157           C   tau( 157) = (   0.5787000   0.1611450   0.1559218  )
       158           C   tau( 158) = (   0.9213000   1.5601214   1.0617066  )
       159           C   tau( 159) = (   0.4213000   1.0217781   0.7498630  )
       160           C   tau( 160) = (   0.0787000   0.6994882   1.6556478  )
       161           H   tau( 161) = (   0.4938000   1.4796006   1.6445429  )
       162           H   tau( 162) = (   0.0062000   0.2416658   0.7387581  )
       163           H   tau( 163) = (   0.5062000   0.6189674   1.0728115  )
       164           H   tau( 164) = (   0.9938000   1.1022990   0.1670267  )
       165           H   tau( 165) = (   0.5062000   0.2416658   0.1670267  )
       166           H   tau( 166) = (   0.9938000   1.4796006   1.0728115  )
       167           H   tau( 167) = (   0.4938000   1.1022990   0.7387581  )
       168           H   tau( 168) = (   0.0062000   0.6189674   1.6445429  )
       169           C   tau( 169) = (   0.2814000   1.5295173   1.7235092  )
       170           C   tau( 170) = (   0.2186000   0.1917491   0.8177244  )
       171           C   tau( 171) = (   0.7186000   0.6688841   0.9938452  )
       172           C   tau( 172) = (   0.7814000   1.0523822   0.0880604  )
       173           C   tau( 173) = (   0.7186000   0.1917491   0.0880604  )
       174           C   tau( 174) = (   0.7814000   1.5295173   0.9938452  )
       175           C   tau( 175) = (   0.2814000   1.0523822   0.8177244  )
       176           C   tau( 176) = (   0.2186000   0.6688841   1.7235092  )
       177           H   tau( 177) = (   0.2559000   1.4288232   1.7564979  )
       178           H   tau( 178) = (   0.2441000   0.2924432   0.8507131  )
       179           H   tau( 179) = (   0.7441000   0.5681900   0.9608565  )
       180           H   tau( 180) = (   0.7559000   1.1530763   0.0550717  )
       181           H   tau( 181) = (   0.7441000   0.2924432   0.0550717  )
       182           H   tau( 182) = (   0.7559000   1.4288232   0.9608565  )
       183           H   tau( 183) = (   0.2559000   1.1530763   0.8507131  )
       184           H   tau( 184) = (   0.2441000   0.5681900   1.7564979  )
       185           C   tau( 185) = (   0.1746400   1.6552214   1.7428568  )
       186           C   tau( 186) = (   0.3253600   0.0660450   0.8370720  )
       187           C   tau( 187) = (   0.8253600   0.7945882   0.9744976  )
       188           C   tau( 188) = (   0.6746400   0.9266782   0.0687128  )
       189           C   tau( 189) = (   0.8253600   0.0660450   0.0687128  )
       190           C   tau( 190) = (   0.6746400   1.6552214   0.9744976  )
       191           C   tau( 191) = (   0.1746400   0.9266782   0.8370720  )
       192           C   tau( 192) = (   0.3253600   0.7945882   1.7428568  )
       193           C   tau( 193) = (   0.3484300   0.1128806   1.6188005  )
       194           C   tau( 194) = (   0.1515700   1.6083857   0.7130157  )
       195           C   tau( 195) = (   0.6515700   0.9735138   1.0985539  )
       196           C   tau( 196) = (   0.8484300   0.7477525   0.1927691  )
       197           C   tau( 197) = (   0.6515700   1.6083857   0.1927691  )
       198           C   tau( 198) = (   0.8484300   0.1128806   1.0985539  )
       199           C   tau( 199) = (   0.3484300   0.7477525   0.7130157  )
       200           C   tau( 200) = (   0.1515700   0.9735138   1.6188005  )

     number of k points=     1
                       cart. coord. in units 2pi/alat
        k(    1) = (   0.0000000   0.0000000   0.0000000), wk =   2.0000000

     Dense  grid:   191065 G-vectors     FFT dimensions: (  64, 108, 120)

     Smooth grid:   103974 G-vectors     FFT dimensions: (  54,  90,  96)

     Estimated max dynamical RAM per process >     986.09Mb

     Check: negative/imaginary core charge=   -0.000010    0.000000

     Initial potential from superposition of free atoms

     starting charge  647.99362, renormalised to  648.00000
     Starting wfc are  584 randomized atomic wfcs
     Checking if some PAW data can be deallocated... 

     total cpu time spent up to now is      189.1 secs

     per-process dynamical memory:   449.1 Mb

     Self-consistent Calculation

     iteration #  1     ecut=    24.00 Ry     beta=0.70
     Davidson diagonalization with overlap
     ethr =  1.00E-02,  avg # of iterations =  2.0

     total cpu time spent up to now is      524.0 secs

     total energy              =   -2347.48146288 Ry
     Harris-Foulkes estimate   =   -2363.89739373 Ry
     estimated scf accuracy    <      26.17282273 Ry

     iteration #  2     ecut=    24.00 Ry     beta=0.70
     Davidson diagonalization with overlap
     ethr =  4.04E-03,  avg # of iterations =  4.0

     total cpu time spent up to now is      852.5 secs

     total energy              =   -2352.33948066 Ry
     Harris-Foulkes estimate   =   -2356.11068423 Ry
     estimated scf accuracy    <       6.39559490 Ry

     iteration #  3     ecut=    24.00 Ry     beta=0.70
     Davidson diagonalization with overlap
     ethr =  9.87E-04,  avg # of iterations =  4.0

     total cpu time spent up to now is     1179.7 secs

     total energy              =   -2353.72378097 Ry
     Harris-Foulkes estimate   =   -2354.37150934 Ry
     estimated scf accuracy    <       1.16978309 Ry

     iteration #  4     ecut=    24.00 Ry     beta=0.70
     Davidson diagonalization with overlap
     ethr =  1.81E-04,  avg # of iterations =  4.0

     total cpu time spent up to now is     1504.3 secs

     total energy              =   -2353.99959666 Ry
     Harris-Foulkes estimate   =   -2354.17434657 Ry
     estimated scf accuracy    <       0.38932638 Ry

     iteration #  5     ecut=    24.00 Ry     beta=0.70
     Davidson diagonalization with overlap
     ethr =  6.01E-05,  avg # of iterations =  4.0

     total cpu time spent up to now is     1792.2 secs

     total energy              =   -2354.07366875 Ry
     Harris-Foulkes estimate   =   -2354.09202335 Ry
     estimated scf accuracy    <       0.03751131 Ry

     iteration #  6     ecut=    24.00 Ry     beta=0.70
     Davidson diagonalization with overlap
     ethr =  5.79E-06,  avg # of iterations =  4.0

     total cpu time spent up to now is     2112.6 secs

     total energy              =   -2354.08263481 Ry
     Harris-Foulkes estimate   =   -2354.08528181 Ry
     estimated scf accuracy    <       0.00579747 Ry

     iteration #  7     ecut=    24.00 Ry     beta=0.70
     Davidson diagonalization with overlap
     ethr =  8.95E-07,  avg # of iterations =  4.0

     total cpu time spent up to now is     2425.2 secs

     total energy              =   -2354.08386657 Ry
     Harris-Foulkes estimate   =   -2354.08424239 Ry
     estimated scf accuracy    <       0.00083154 Ry

     iteration #  8     ecut=    24.00 Ry     beta=0.70
     Davidson diagonalization with overlap
     ethr =  1.28E-07,  avg # of iterations =  3.0

     total cpu time spent up to now is     2734.4 secs

     total energy              =   -2354.08404005 Ry
     Harris-Foulkes estimate   =   -2354.08406425 Ry
     estimated scf accuracy    <       0.00005119 Ry

     iteration #  9     ecut=    24.00 Ry     beta=0.70
     Davidson diagonalization with overlap
     ethr =  7.90E-09,  avg # of iterations =  4.0

     total cpu time spent up to now is     3071.2 secs

     total energy              =   -2354.08405284 Ry
     Harris-Foulkes estimate   =   -2354.08406216 Ry
     estimated scf accuracy    <       0.00002201 Ry

     iteration # 10     ecut=    24.00 Ry     beta=0.70
     Davidson diagonalization with overlap
     ethr =  3.40E-09,  avg # of iterations =  3.0

     total cpu time spent up to now is     3357.6 secs

     total energy              =   -2354.08405713 Ry
     Harris-Foulkes estimate   =   -2354.08405738 Ry
     estimated scf accuracy    <       0.00000059 Ry

     iteration # 11     ecut=    24.00 Ry     beta=0.70
     Davidson diagonalization with overlap
     ethr =  9.17E-11,  avg # of iterations =  4.0

     total cpu time spent up to now is     3875.9 secs

     total energy              =   -2354.08405729 Ry
     Harris-Foulkes estimate   =   -2354.08405740 Ry
     estimated scf accuracy    <       0.00000026 Ry

     iteration # 12     ecut=    24.00 Ry     beta=0.70
     Davidson diagonalization with overlap
     ethr =  4.02E-11,  avg # of iterations =  4.0

     total cpu time spent up to now is     4926.8 secs

     End of self-consistent calculation

          k = 0.0000 0.0000 0.0000 ( 13008 PWs)   bands (ev):

   -23.0619 -23.0614 -23.0608 -23.0605 -23.0361 -23.0360 -23.0357 -23.0357
   -22.2040 -22.2035 -22.2027 -22.2025 -22.2023 -22.2021 -22.2021 -22.2015
   -20.4644 -20.4644 -20.4634 -20.4633 -18.5984 -18.5972 -18.5969 -18.5962
   -17.8181 -17.8176 -17.8112 -17.8107 -16.9163 -16.9138 -16.9045 -16.9013
   -16.2408 -16.2404 -16.2325 -16.2313 -14.8435 -14.8357 -14.8321 -14.8273
   -14.5265 -14.5224 -14.5177 -14.5163 -14.4514 -14.4383 -14.4328 -14.4320
   -13.4760 -13.4636 -13.4625 -13.4584 -13.4556 -13.4527 -13.4483 -13.4454
   -12.8702 -12.8654 -12.8623 -12.8440 -12.6946 -12.6835 -12.6731 -12.6659
   -11.7538 -11.7512 -11.7059 -11.6568 -11.5790 -11.5704 -11.5614 -11.5424
   -11.3777 -11.3053 -11.2978 -11.2300 -11.1809 -11.1294 -11.1249 -11.1071
   -10.5295 -10.5289 -10.5272 -10.5262 -10.1152 -10.1110 -10.0866 -10.0741
    -9.6028  -9.5984  -9.5978  -9.5897  -9.2221  -9.2186  -9.2097  -9.1959
    -8.7610  -8.7381  -8.6861  -8.6738  -8.4403  -8.4273  -8.3782  -8.3592
    -7.7678  -7.7333  -7.7246  -7.7074  -7.4870  -7.4726  -7.4725  -7.4629
    -7.3659  -7.3530  -7.2990  -7.2800  -7.0135  -7.0017  -6.9215  -6.9161
    -6.4916  -6.4755  -6.4344  -6.4158  -6.3874  -6.3645  -6.2956  -6.2764
    -6.2659  -6.2468  -6.1650  -6.1641  -5.9486  -5.9183  -5.9150  -5.9065
    -5.8989  -5.8756  -5.8578  -5.8539  -5.6320  -5.6265  -5.6180  -5.6078
    -5.5970  -5.5396  -5.5144  -5.4741  -5.3207  -5.2558  -5.2272  -5.2176
    -5.1627  -5.1376  -5.0831  -5.0787  -5.0700  -5.0679  -5.0546  -5.0508
    -4.9841  -4.9646  -4.9504  -4.9307  -4.8962  -4.8142  -4.7782  -4.7607
    -4.7585  -4.7466  -4.6827  -4.6770  -4.6738  -4.6550  -4.6483  -4.6454
    -4.6234  -4.5722  -4.5387  -4.5061  -4.4130  -4.3685  -4.3358  -4.2742
    -4.2299  -4.2267  -4.2221  -4.2103  -4.1856  -4.1707  -4.1485  -4.0946
    -4.0879  -4.0728  -4.0524  -3.9998  -3.9649  -3.9575  -3.9303  -3.8910
    -3.8272  -3.8131  -3.7989  -3.7641  -3.7572  -3.6703  -3.6497  -3.6304
    -3.6291  -3.5876  -3.5862  -3.5765  -3.3764  -3.3046  -3.2833  -3.2683
    -3.2672  -3.2566  -3.2515  -3.2511  -3.2309  -3.2204  -3.2160  -3.1924
    -3.1521  -3.1520  -3.1311  -3.1172  -3.0716  -3.0528  -2.9969  -2.9825
    -2.7199  -2.7183  -2.6974  -2.6949  -2.6374  -2.6330  -2.6224  -2.6180
    -2.6128  -2.6059  -2.5626  -2.5522  -2.5313  -2.5258  -2.4948  -2.4698
    -2.3082  -2.2962  -2.2946  -2.2816  -2.2663  -2.2390  -2.2373  -2.2226
    -2.2187  -2.2062  -2.2058  -2.2053  -2.1217  -2.0731  -2.0246  -2.0244
    -2.0145  -2.0133  -2.0059  -1.9752  -1.9151  -1.8813  -1.8672  -1.8648
    -1.8580  -1.8173  -1.8166  -1.8162  -1.8076  -1.7921  -1.7700  -1.7652
    -1.5613  -1.5206  -1.4734  -1.4647  -1.4580  -1.4559  -1.4232  -1.3942
    -1.3729  -1.3524  -1.3517  -1.3334  -1.1452  -1.1424  -1.0875  -1.0822
    -0.4927  -0.4751  -0.4730  -0.4343   0.0993   0.1254   0.1472   0.1594
     0.3044   0.3729   0.3854   0.3957   0.5304   0.5720   0.5821   0.5832
     0.6178   0.6309   0.6407   0.6555   0.6558   0.6837   0.7133   0.7439
     1.6268   1.6292   1.6471   1.6680

     highest occupied level (ev):     1.6680

!    total energy              =   -2354.08405729 Ry
     Harris-Foulkes estimate   =   -2354.08405737 Ry
     estimated scf accuracy    <       0.00000009 Ry

     The total energy is the sum of the following terms:

     one-electron contribution =   -2044.53337322 Ry
     hartree contribution      =    1267.41497904 Ry
     xc contribution           =    -653.15597303 Ry
     ewald contribution        =    -881.53888754 Ry
     one-center paw contrib.   =     -42.27080254 Ry

     convergence has been achieved in  12 iterations

     Forces acting on atoms (Ry/au):

     atom    1 type  3   force =     0.01095258    0.02266680    0.02439982
     atom    2 type  3   force =    -0.01095258   -0.02266680    0.02439982
     atom    3 type  3   force =    -0.01095258    0.02266680   -0.02439982
     atom    4 type  3   force =     0.01095258   -0.02266680   -0.02439982
     atom    5 type  3   force =    -0.01095258   -0.02266680   -0.02439982
     atom    6 type  3   force =     0.01095258    0.02266680   -0.02439982
     atom    7 type  3   force =     0.01095258   -0.02266680    0.02439982
     atom    8 type  3   force =    -0.01095258    0.02266680    0.02439982
     atom    9 type  3   force =    -0.01978496    0.01063559   -0.03675819
     atom   10 type  3   force =     0.01978496   -0.01063559   -0.03675819
     atom   11 type  3   force =     0.01978496    0.01063559    0.03675819
     atom   12 type  3   force =    -0.01978496   -0.01063559    0.03675819
     atom   13 type  3   force =     0.01978496   -0.01063559    0.03675819
     atom   14 type  3   force =    -0.01978496    0.01063559    0.03675819
     atom   15 type  3   force =    -0.01978496   -0.01063559   -0.03675819
     atom   16 type  3   force =     0.01978496    0.01063559   -0.03675819
     atom   17 type  5   force =    -0.01279242   -0.00154529    0.00461253
     atom   18 type  5   force =     0.01279242    0.00154529    0.00461253
     atom   19 type  5   force =     0.01279242   -0.00154529   -0.00461253
     atom   20 type  5   force =    -0.01279242    0.00154529   -0.00461253
     atom   21 type  5   force =     0.01279242    0.00154529   -0.00461253
     atom   22 type  5   force =    -0.01279242   -0.00154529   -0.00461253
     atom   23 type  5   force =    -0.01279242    0.00154529    0.00461253
     atom   24 type  5   force =     0.01279242   -0.00154529    0.00461253
     atom   25 type  5   force =     0.00452309    0.01206933   -0.00315018
     atom   26 type  5   force =    -0.00452309   -0.01206933   -0.00315018
     atom   27 type  5   force =    -0.00452309    0.01206933    0.00315018
     atom   28 type  5   force =     0.00452309   -0.01206933    0.00315018
     atom   29 type  5   force =    -0.00452309   -0.01206933    0.00315018
     atom   30 type  5   force =     0.00452309    0.01206933    0.00315018
     atom   31 type  5   force =     0.00452309   -0.01206933   -0.00315018
     atom   32 type  5   force =    -0.00452309    0.01206933   -0.00315018
     atom   33 type  5   force =    -0.03147017   -0.00384668    0.01571711
     atom   34 type  5   force =     0.03147017    0.00384668    0.01571711
     atom   35 type  5   force =     0.03147017   -0.00384668   -0.01571711
     atom   36 type  5   force =    -0.03147017    0.00384668   -0.01571711
     atom   37 type  5   force =     0.03147017    0.00384668   -0.01571711
     atom   38 type  5   force =    -0.03147017   -0.00384668   -0.01571711
     atom   39 type  5   force =    -0.03147017    0.00384668    0.01571711
     atom   40 type  5   force =     0.03147017   -0.00384668    0.01571711
     atom   41 type  1   force =     0.00928865   -0.03187570    0.01359384
     atom   42 type  1   force =    -0.00928865    0.03187570    0.01359384
     atom   43 type  1   force =    -0.00928865   -0.03187570   -0.01359384
     atom   44 type  1   force =     0.00928865    0.03187570   -0.01359384
     atom   45 type  1   force =    -0.00928865    0.03187570   -0.01359384
     atom   46 type  1   force =     0.00928865   -0.03187570   -0.01359384
     atom   47 type  1   force =     0.00928865    0.03187570    0.01359384
     atom   48 type  1   force =    -0.00928865   -0.03187570    0.01359384
     atom   49 type  2   force =    -0.00582772   -0.23222096    0.08963806
     atom   50 type  2   force =     0.00582772    0.23222096    0.08963806
     atom   51 type  2   force =     0.00582772   -0.23222096   -0.08963806
     atom   52 type  2   force =    -0.00582772    0.23222096   -0.08963806
     atom   53 type  2   force =     0.00582772    0.23222096   -0.08963806
     atom   54 type  2   force =    -0.00582772   -0.23222096   -0.08963806
     atom   55 type  2   force =    -0.00582772    0.23222096    0.08963806
     atom   56 type  2   force =     0.00582772   -0.23222096    0.08963806
     atom   57 type  4   force =    -0.19212492    0.04100541   -0.16735317
     atom   58 type  4   force =     0.19212492   -0.04100541   -0.16735317
     atom   59 type  4   force =     0.19212492    0.04100541    0.16735317
     atom   60 type  4   force =    -0.19212492   -0.04100541    0.16735317
     atom   61 type  4   force =     0.19212492   -0.04100541    0.16735317
     atom   62 type  4   force =    -0.19212492    0.04100541    0.16735317
     atom   63 type  4   force =    -0.19212492   -0.04100541   -0.16735317
     atom   64 type  4   force =     0.19212492    0.04100541   -0.16735317
     atom   65 type  4   force =     0.22406382    0.02793819   -0.12021751
     atom   66 type  4   force =    -0.22406382   -0.02793819   -0.12021751
     atom   67 type  4   force =    -0.22406382    0.02793819    0.12021751
     atom   68 type  4   force =     0.22406382   -0.02793819    0.12021751
     atom   69 type  4   force =    -0.22406382   -0.02793819    0.12021751
     atom   70 type  4   force =     0.22406382    0.02793819    0.12021751
     atom   71 type  4   force =     0.22406382   -0.02793819   -0.12021751
     atom   72 type  4   force =    -0.22406382    0.02793819   -0.12021751
     atom   73 type  4   force =    -0.01858890    0.16695022    0.19611954
     atom   74 type  4   force =     0.01858890   -0.16695022    0.19611954
     atom   75 type  4   force =     0.01858890    0.16695022   -0.19611954
     atom   76 type  4   force =    -0.01858890   -0.16695022   -0.19611954
     atom   77 type  4   force =     0.01858890   -0.16695022   -0.19611954
     atom   78 type  4   force =    -0.01858890    0.16695022   -0.19611954
     atom   79 type  4   force =    -0.01858890   -0.16695022    0.19611954
     atom   80 type  4   force =     0.01858890    0.16695022    0.19611954
     atom   81 type  2   force =    -0.00568370    0.01622859   -0.00494640
     atom   82 type  2   force =     0.00568370   -0.01622859   -0.00494640
     atom   83 type  2   force =     0.00568370    0.01622859    0.00494640
     atom   84 type  2   force =    -0.00568370   -0.01622859    0.00494640
     atom   85 type  2   force =     0.00568370   -0.01622859    0.00494640
     atom   86 type  2   force =    -0.00568370    0.01622859    0.00494640
     atom   87 type  2   force =    -0.00568370   -0.01622859   -0.00494640
     atom   88 type  2   force =     0.00568370    0.01622859   -0.00494640
     atom   89 type  2   force =    -0.26406662   -0.09002719    0.13568474
     atom   90 type  2   force =     0.26406662    0.09002719    0.13568474
     atom   91 type  2   force =     0.26406662   -0.09002719   -0.13568474
     atom   92 type  2   force =    -0.26406662    0.09002719   -0.13568474
     atom   93 type  2   force =     0.26406662    0.09002719   -0.13568474
     atom   94 type  2   force =    -0.26406662   -0.09002719   -0.13568474
     atom   95 type  2   force =    -0.26406662    0.09002719    0.13568474
     atom   96 type  2   force =     0.26406662   -0.09002719    0.13568474
     atom   97 type  4   force =     0.28920050    0.09847728   -0.14830507
     atom   98 type  4   force =    -0.28920050   -0.09847728   -0.14830507
     atom   99 type  4   force =    -0.28920050    0.09847728    0.14830507
     atom  100 type  4   force =     0.28920050   -0.09847728    0.14830507
     atom  101 type  4   force =    -0.28920050   -0.09847728    0.14830507
     atom  102 type  4   force =     0.28920050    0.09847728    0.14830507
     atom  103 type  4   force =     0.28920050   -0.09847728   -0.14830507
     atom  104 type  4   force =    -0.28920050    0.09847728   -0.14830507
     atom  105 type  2   force =    -0.00987487   -0.00653350    0.00393891
     atom  106 type  2   force =     0.00987487    0.00653350    0.00393891
     atom  107 type  2   force =     0.00987487   -0.00653350   -0.00393891
     atom  108 type  2   force =    -0.00987487    0.00653350   -0.00393891
     atom  109 type  2   force =     0.00987487    0.00653350   -0.00393891
     atom  110 type  2   force =    -0.00987487   -0.00653350   -0.00393891
     atom  111 type  2   force =    -0.00987487    0.00653350    0.00393891
     atom  112 type  2   force =     0.00987487   -0.00653350    0.00393891
     atom  113 type  2   force =    -0.18446979    0.16646259    0.04786636
     atom  114 type  2   force =     0.18446979   -0.16646259    0.04786636
     atom  115 type  2   force =     0.18446979    0.16646259   -0.04786636
     atom  116 type  2   force =    -0.18446979   -0.16646259   -0.04786636
     atom  117 type  2   force =     0.18446979   -0.16646259   -0.04786636
     atom  118 type  2   force =    -0.18446979    0.16646259   -0.04786636
     atom  119 type  2   force =    -0.18446979   -0.16646259    0.04786636
     atom  120 type  2   force =     0.18446979    0.16646259    0.04786636
     atom  121 type  4   force =    -0.05473568   -0.14501003   -0.20708641
     atom  122 type  4   force =     0.05473568    0.14501003   -0.20708641
     atom  123 type  4   force =     0.05473568   -0.14501003    0.20708641
     atom  124 type  4   force =    -0.05473568    0.14501003    0.20708641
     atom  125 type  4   force =     0.05473568    0.14501003    0.20708641
     atom  126 type  4   force =    -0.05473568   -0.14501003    0.20708641
     atom  127 type  4   force =    -0.05473568    0.14501003   -0.20708641
     atom  128 type  4   force =     0.05473568   -0.14501003   -0.20708641
     atom  129 type  4   force =     0.02606452   -0.15945002    0.20178144
     atom  130 type  4   force =    -0.02606452    0.15945002    0.20178144
     atom  131 type  4   force =    -0.02606452   -0.15945002   -0.20178144
     atom  132 type  4   force =     0.02606452    0.15945002   -0.20178144
     atom  133 type  4   force =    -0.02606452    0.15945002   -0.20178144
     atom  134 type  4   force =     0.02606452   -0.15945002   -0.20178144
     atom  135 type  4   force =     0.02606452    0.15945002    0.20178144
     atom  136 type  4   force =    -0.02606452   -0.15945002    0.20178144
     atom  137 type  4   force =     0.22164334    0.12429942   -0.04121196
     atom  138 type  4   force =    -0.22164334   -0.12429942   -0.04121196
     atom  139 type  4   force =    -0.22164334    0.12429942    0.04121196
     atom  140 type  4   force =     0.22164334   -0.12429942    0.04121196
     atom  141 type  4   force =    -0.22164334   -0.12429942    0.04121196
     atom  142 type  4   force =     0.22164334    0.12429942    0.04121196
     atom  143 type  4   force =     0.22164334   -0.12429942   -0.04121196
     atom  144 type  4   force =    -0.22164334    0.12429942   -0.04121196
     atom  145 type  2   force =    -0.00207637   -0.01666524    0.00355755
     atom  146 type  2   force =     0.00207637    0.01666524    0.00355755
     atom  147 type  2   force =     0.00207637   -0.01666524   -0.00355755
     atom  148 type  2   force =    -0.00207637    0.01666524   -0.00355755
     atom  149 type  2   force =     0.00207637    0.01666524   -0.00355755
     atom  150 type  2   force =    -0.00207637   -0.01666524   -0.00355755
     atom  151 type  2   force =    -0.00207637    0.01666524    0.00355755
     atom  152 type  2   force =     0.00207637   -0.01666524    0.00355755
     atom  153 type  2   force =    -0.19320448    0.26251508    0.01452132
     atom  154 type  2   force =     0.19320448   -0.26251508    0.01452132
     atom  155 type  2   force =     0.19320448    0.26251508   -0.01452132
     atom  156 type  2   force =    -0.19320448   -0.26251508   -0.01452132
     atom  157 type  2   force =     0.19320448   -0.26251508   -0.01452132
     atom  158 type  2   force =    -0.19320448    0.26251508   -0.01452132
     atom  159 type  2   force =    -0.19320448   -0.26251508    0.01452132
     atom  160 type  2   force =     0.19320448    0.26251508    0.01452132
     atom  161 type  4   force =     0.22679252   -0.25507466   -0.03567034
     atom  162 type  4   force =    -0.22679252    0.25507466   -0.03567034
     atom  163 type  4   force =    -0.22679252   -0.25507466    0.03567034
     atom  164 type  4   force =     0.22679252    0.25507466    0.03567034
     atom  165 type  4   force =    -0.22679252    0.25507466    0.03567034
     atom  166 type  4   force =     0.22679252   -0.25507466    0.03567034
     atom  167 type  4   force =     0.22679252    0.25507466   -0.03567034
     atom  168 type  4   force =    -0.22679252   -0.25507466   -0.03567034
     atom  169 type  2   force =     0.05704425    0.29768317   -0.09178611
     atom  170 type  2   force =    -0.05704425   -0.29768317   -0.09178611
     atom  171 type  2   force =    -0.05704425    0.29768317    0.09178611
     atom  172 type  2   force =     0.05704425   -0.29768317    0.09178611
     atom  173 type  2   force =    -0.05704425   -0.29768317    0.09178611
     atom  174 type  2   force =     0.05704425    0.29768317    0.09178611
     atom  175 type  2   force =     0.05704425   -0.29768317   -0.09178611
     atom  176 type  2   force =    -0.05704425    0.29768317   -0.09178611
     atom  177 type  4   force =    -0.08098196   -0.31170334    0.10573029
     atom  178 type  4   force =     0.08098196    0.31170334    0.10573029
     atom  179 type  4   force =     0.08098196   -0.31170334   -0.10573029
     atom  180 type  4   force =    -0.08098196    0.31170334   -0.10573029
     atom  181 type  4   force =     0.08098196    0.31170334   -0.10573029
     atom  182 type  4   force =    -0.08098196   -0.31170334   -0.10573029
     atom  183 type  4   force =    -0.08098196    0.31170334    0.10573029
     atom  184 type  4   force =     0.08098196   -0.31170334    0.10573029
     atom  185 type  2   force =     0.02288934   -0.01014282   -0.00909942
     atom  186 type  2   force =    -0.02288934    0.01014282   -0.00909942
     atom  187 type  2   force =    -0.02288934   -0.01014282    0.00909942
     atom  188 type  2   force =     0.02288934    0.01014282    0.00909942
     atom  189 type  2   force =    -0.02288934    0.01014282    0.00909942
     atom  190 type  2   force =     0.02288934   -0.01014282    0.00909942
     atom  191 type  2   force =     0.02288934    0.01014282   -0.00909942
     atom  192 type  2   force =    -0.02288934   -0.01014282   -0.00909942
     atom  193 type  2   force =    -0.01121725    0.01530474   -0.00206512
     atom  194 type  2   force =     0.01121725   -0.01530474   -0.00206512
     atom  195 type  2   force =     0.01121725    0.01530474    0.00206512
     atom  196 type  2   force =    -0.01121725   -0.01530474    0.00206512
     atom  197 type  2   force =     0.01121725   -0.01530474    0.00206512
     atom  198 type  2   force =    -0.01121725    0.01530474    0.00206512
     atom  199 type  2   force =    -0.01121725   -0.01530474   -0.00206512
     atom  200 type  2   force =     0.01121725    0.01530474   -0.00206512

     Total force =     3.077100     Total SCF correction =     0.000974

     BFGS Geometry Optimization

     number of scf cycles    =   1
     number of bfgs steps    =   0

     energy   new            =   -2354.0840572889 Ry

     new trust radius        =       0.3431767748 bohr
     new conv_thr            =       0.0000001000 Ry


ATOMIC_POSITIONS (crystal)
F        0.113728839   0.185736192   0.008144798
F        0.386271161   0.814263808   0.508144798
F        0.886271161   0.685736192   0.491855202
F        0.613728839   0.314263808   0.991855202
F        0.886271161   0.814263808   0.991855202
F        0.613728839   0.185736192   0.491855202
F        0.113728839   0.314263808   0.508144798
F        0.386271161   0.685736192   0.008144798
F        0.996583733   0.149302969   0.878732381
F        0.503416267   0.850697031   0.378732381
F        0.003416267   0.649302969   0.621267619
F        0.496583733   0.350697031   0.121267619
F        0.003416267   0.850697031   0.121267619
F        0.496583733   0.149302969   0.621267619
F        0.996583733   0.350697031   0.378732381
F        0.503416267   0.649302969   0.878732381
N        0.364107129   0.151894357   0.866237810
N        0.135892871   0.848105643   0.366237810
N        0.635892871   0.651894357   0.633762190
N        0.864107129   0.348105643   0.133762190
N        0.635892871   0.848105643   0.133762190
N        0.864107129   0.151894357   0.633762190
N        0.364107129   0.348105643   0.366237810
N        0.135892871   0.651894357   0.866237810
N        0.207120340   0.047204596   0.933252222
N        0.292879660   0.952795404   0.433252222
N        0.792879660   0.547204596   0.566747778
N        0.707120340   0.452795404   0.066747778
N        0.792879660   0.952795404   0.066747778
N        0.707120340   0.047204596   0.566747778
N        0.207120340   0.452795404   0.433252222
N        0.292879660   0.547204596   0.933252222
N        0.033439486   0.956651488   0.000757734
N        0.466560514   0.043348512   0.500757734
N        0.966560514   0.456651488   0.499242266
N        0.533439486   0.543348512   0.999242266
N        0.966560514   0.043348512   0.999242266
N        0.533439486   0.956651488   0.499242266
N        0.033439486   0.543348512   0.500757734
N        0.466560514   0.456651488   0.000757734
B        0.069875708   0.114512212   0.952935090
B        0.430124292   0.885487788   0.452935090
B        0.930124292   0.614512212   0.547064910
B        0.569875708   0.385487788   0.047064910
B        0.930124292   0.885487788   0.047064910
B        0.569875708   0.114512212   0.547064910
B        0.069875708   0.385487788   0.452935090
B        0.430124292   0.614512212   0.952935090
C        0.513738799   0.258848130   0.795216814
C        0.986261201   0.741151870   0.295216814
C        0.486261201   0.758848130   0.704783186
C        0.013738799   0.241151870   0.204783186
C        0.486261201   0.741151870   0.204783186
C        0.013738799   0.258848130   0.704783186
C        0.513738799   0.241151870   0.295216814
C        0.986261201   0.758848130   0.795216814
H        0.419092138   0.279876533   0.745974295
H        0.080907862   0.720123467   0.245974295
H        0.580907862   0.779876533   0.754025705
H        0.919092138   0.220123467   0.254025705
H        0.580907862   0.720123467   0.254025705
H        0.919092138   0.279876533   0.754025705
H        0.419092138   0.220123467   0.245974295
H        0.080907862   0.779876533   0.745974295
H        0.627087427   0.275106005   0.759386961
H        0.872912573   0.724893995   0.259386961
H        0.372912573   0.775106005   0.740613039
H        0.127087427   0.224893995   0.240613039
H        0.372912573   0.724893995   0.240613039
H        0.127087427   0.275106005   0.740613039
H        0.627087427   0.224893995   0.259386961
H        0.872912573   0.775106005   0.759386961
H        0.505947864   0.315911585   0.845709898
H        0.994052136   0.684088415   0.345709898
H        0.494052136   0.815911585   0.654290102
H        0.005947864   0.184088415   0.154290102
H        0.494052136   0.684088415   0.154290102
H        0.005947864   0.315911585   0.654290102
H        0.505947864   0.184088415   0.345709898
H        0.994052136   0.815911585   0.845709898
C        0.499687726   0.172724363   0.826720767
C        1.000312274   0.827275637   0.326720767
C        0.500312274   0.672724363   0.673279233
C       -0.000312274   0.327275637   0.173279233
C        0.500312274   0.827275637   0.173279233
C       -0.000312274   0.172724363   0.673279233
C        0.499687726   0.327275637   0.326720767
C        1.000312274   0.672724363   0.826720767
C        0.603933208   0.105778279   0.820732224
C        0.896066792   0.894221721   0.320732224
C        0.396066792   0.605778279   0.679267776
C        0.103933208   0.394221721   0.179267776
C        0.396066792   0.894221721   0.179267776
C        0.103933208   0.105778279   0.679267776
C        0.603933208   0.394221721   0.320732224
C        0.896066792   0.605778279   0.820732224
H        0.731524585   0.130745994   0.785225993
H        0.768475415   0.869254006   0.285225993
H        0.268475415   0.630745994   0.714774007
H        0.231524585   0.369254006   0.214774007
H        0.268475415   0.869254006   0.214774007
H        0.231524585   0.130745994   0.714774007
H        0.731524585   0.369254006   0.285225993
H        0.768475415   0.630745994   0.785225993
C        0.602777957   0.019974740   0.843064763
C        0.897222043   0.980025260   0.343064763
C        0.397222043   0.519974740   0.656935237
C        0.102777957   0.480025260   0.156935237
C        0.397222043   0.980025260   0.156935237
C        0.102777957   0.019974740   0.656935237
C        0.602777957   0.480025260   0.343064763
C        0.897222043   0.519974740   0.843064763
C        0.720366602   0.958564026   0.829247666
C        0.779633398   0.041435974   0.329247666
C        0.279633398   0.458564026   0.670752334
C        0.220366602   0.541435974   0.170752334
C        0.279633398   0.041435974   0.170752334
C        0.220366602   0.958564026   0.670752334
C        0.720366602   0.541435974   0.329247666
C        0.779633398   0.458564026   0.829247666
H        0.703907495   0.911278443   0.770514889
H        0.796092505   0.088721557   0.270514889
H        0.296092505   0.411278443   0.729485111
H        0.203907495   0.588721557   0.229485111
H        0.296092505   0.088721557   0.229485111
H        0.203907495   0.911278443   0.729485111
H        0.703907495   0.588721557   0.270514889
H        0.796092505   0.411278443   0.770514889
H        0.743415474   0.907958484   0.884103610
H        0.756584526   0.092041516   0.384103610
H        0.256584526   0.407958484   0.615896390
H        0.243415474   0.592041516   0.115896390
H        0.256584526   0.092041516   0.115896390
H        0.243415474   0.907958484   0.615896390
H        0.743415474   0.592041516   0.384103610
H        0.756584526   0.407958484   0.884103610
H        0.842437406   0.988675804   0.816790003
H        0.657562594   0.011324196   0.316790003
H        0.157562594   0.488675804   0.683209997
H        0.342437406   0.511324196   0.183209997
H        0.157562594   0.011324196   0.183209997
H        0.342437406   0.988675804   0.683209997
H        0.842437406   0.511324196   0.316790003
H        0.657562594   0.488675804   0.816790003
C        0.460501307   0.995299914   0.883511716
C        0.039498693   0.004700086   0.383511716
C        0.539498693   0.495299914   0.616488284
C        0.960501307   0.504700086   0.116488284
C        0.539498693   0.004700086   0.116488284
C        0.960501307   0.995299914   0.616488284
C        0.460501307   0.504700086   0.383511716
C        0.039498693   0.495299914   0.883511716
C        0.409325228   0.915832708   0.914426823
C        0.090674772   0.084167292   0.414426823
C        0.590674772   0.415832708   0.585573177
C        0.909325228   0.584167292   0.085573177
C        0.590674772   0.084167292   0.085573177
C        0.909325228   0.915832708   0.585573177
C        0.409325228   0.584167292   0.414426823
C        0.090674772   0.415832708   0.914426823
H        0.507856551   0.850415209   0.906579600
H       -0.007856551   0.149584791   0.406579600
H        0.492143449   0.350415209   0.593420400
H        1.007856551   0.649584791   0.093420400
H        0.492143449   0.149584791   0.093420400
H        1.007856551   0.850415209   0.593420400
H        0.507856551   0.649584791   0.406579600
H       -0.007856551   0.350415209   0.906579600
C        0.284935591   0.899319049   0.948249694
C        0.215064409   0.100680951   0.448249694
C        0.715064409   0.399319049   0.551750306
C        0.784935591   0.600680951   0.051750306
C        0.715064409   0.100680951   0.051750306
C        0.784935591   0.899319049   0.551750306
C        0.284935591   0.600680951   0.448249694
C        0.215064409   0.399319049   0.948249694
H        0.250880756   0.818876109   0.973217383
H        0.249119244   0.181123891   0.473217383
H        0.749119244   0.318876109   0.526782617
H        0.750880756   0.681123891   0.026782617
H        0.749119244   0.181123891   0.026782617
H        0.750880756   0.818876109   0.526782617
H        0.250880756   0.681123891   0.473217383
H        0.249119244   0.318876109   0.973217383
C        0.176058676   0.961264775   0.961758679
C        0.323941324   0.038735225   0.461758679
C        0.823941324   0.461264775   0.538241321
C        0.676058676   0.538735225   0.038241321
C        0.823941324   0.038735225   0.038241321
C        0.676058676   0.961264775   0.538241321
C        0.176058676   0.538735225   0.461758679
C        0.323941324   0.461264775   0.961758679
C        0.347734757   0.066131097   0.893519345
C        0.152265243   0.933868903   0.393519345
C        0.652265243   0.566131097   0.606480655
C        0.847734757   0.433868903   0.106480655
C        0.652265243   0.933868903   0.106480655
C        0.847734757   0.066131097   0.606480655
C        0.347734757   0.433868903   0.393519345
C        0.152265243   0.566131097   0.893519345



     Writing output data file CO.save
     NEW-OLD atomic charge density approx. for the potential

     Check: negative/imaginary core charge=   -0.000010    0.000000

     Writing output data file CO.save

     init_run     :    187.56s CPU    188.18s WALL (       1 calls)
     electrons    :   4727.82s CPU   4737.70s WALL (       1 calls)
     update_pot   :     24.00s CPU     24.04s WALL (       1 calls)
     forces       :    197.32s CPU    197.97s WALL (       1 calls)

     Called by init_run:
     wfcinit      :    157.41s CPU    157.58s WALL (       1 calls)
     potinit      :      8.82s CPU      8.90s WALL (       1 calls)

     Called by electrons:
     c_bands      :   4165.24s CPU   4168.11s WALL (      12 calls)
     sum_band     :    486.29s CPU    489.81s WALL (      12 calls)
     v_of_rho     :     14.14s CPU     14.25s WALL (      14 calls)
     newd         :     63.67s CPU     67.70s WALL (      14 calls)
     PAW_pot      :      8.61s CPU      8.61s WALL (      15 calls)
     mix_rho      :      1.36s CPU      1.36s WALL (      12 calls)

     Called by c_bands:
     init_us_2    :     10.61s CPU     10.67s WALL (      26 calls)
     regterg      :   4156.00s CPU   4158.87s WALL (      12 calls)

     Called by sum_band:
     sum_band:bec :      0.05s CPU      0.05s WALL (      13 calls)
     addusdens    :     52.92s CPU     56.44s WALL (      12 calls)

     Called by *egterg:
     h_psi        :   1972.28s CPU   1972.43s WALL (      57 calls)
     s_psi        :    887.44s CPU    887.48s WALL (      57 calls)
     g_psi        :      0.77s CPU      0.77s WALL (      44 calls)
     rdiaghg      :     58.05s CPU     58.03s WALL (      56 calls)

     Called by h_psi:
     h_psi:pot    :   1970.93s CPU   1971.06s WALL (      57 calls)
     h_psi:calbec :    974.35s CPU    974.41s WALL (      57 calls)
     vloc_psi     :    113.15s CPU    113.17s WALL (      57 calls)
     add_vuspsi   :    883.42s CPU    883.47s WALL (      57 calls)

     General routines
     calbec       :   1637.78s CPU   1637.75s WALL (      74 calls)
     fft          :      7.64s CPU      7.69s WALL (     230 calls)
     ffts         :      0.40s CPU      0.40s WALL (      26 calls)
     fftw         :    117.91s CPU    117.90s WALL (   13678 calls)
     interpolate  :      1.52s CPU      1.54s WALL (      26 calls)
     davcio       :      0.00s CPU      0.26s WALL (       2 calls)

     Parallel routines
     fft_scatter  :      6.59s CPU      6.65s WALL (   13934 calls)

     PWSCF        :     1h27m CPU        1h27m WALL


   This run was terminated on:  20:28:36   6Jan2017            

=------------------------------------------------------------------------------=
   JOB DONE.
=------------------------------------------------------------------------------=
STOP 3
+ tree ./tmp-cod2222222-93582
./tmp-cod2222222-93582
 cod2222222.in
 cod2222222.out
 tmp-cod2222222-93582
     CO.bfgs
     CO.save
      B.pbe-n-kjpaw_psl.0.1.UPF
      charge-density.dat
      charge-density.old.dat
      C_pbe_v1.2.uspp.F.UPF
      data-file.xml
      f_pbe_v1.4.uspp.F.UPF
      H.pbe-rrkjus_psl.0.1.UPF
      K00001
       eigenval.xml
      N.pbe.theos.UPF
      O.pbe-n-kjpaw_psl.0.1.UPF
      paw.txt
     CO.update
     CO.wfc1

3 directories, 16 files
++ basename ./outputs/cod2222222.out
+ mv ./tmp-cod2222222-93582/cod2222222.out ./outputs/cod2222222.out
+ rm -rf ./tmp-cod2222222-93582
